108
Lattice="19.30901168624703 -0.0 0.0 -9.654505843123514 16.722086845582083 0.0 0.0 -0.0 18.813832081553223" Properties=species:S:1:pos:R:3:forces:R:3 config_type=mono energy=-92200.74724407816 stress="0.005154536851729722 -0.0001083425985935353 -0.000674845847171597 -0.0001083425985935353 0.004980086904841826 0.0005178408949724907 -0.000674845847171597 0.0005178408949724907 0.0013708093194927814" free_energy=-92200.74724407816 pbc="T T T"
Mo      -0.02801158       0.90787884       9.32979199       0.21890707       0.43636634       1.39224619
S        1.54271859       1.81619019      10.98397764       0.11764211       0.12567964      -0.17648026
S        1.59576624       1.89770318       7.85236489       0.37030622      -0.35942994       0.04850180
Mo      -1.58295278       3.72925756       9.33969365      -0.84248469      -0.20432274      -0.16737470
S       -0.09874049       4.60936810      10.94788717       0.84625469       0.35326726       0.39797617
S        0.08083332       4.65671766       7.84665135      -0.32236080       0.20745152      -0.01307406
Mo      -3.23410885       6.48995964       9.39897618       0.24284815       0.33161086      -0.68583508
S       -1.66169879       7.42024272      10.95634065       0.39634018      -0.18127897       0.27045794
S       -1.63552929       7.39416976       7.80555984       0.36683394       0.13172636       0.48031627
Mo      -4.83467724       9.34216520       9.42965819      -0.14137905      -0.85593798       0.19000838
S       -3.21013285      10.19405756      10.97738747       0.32896596       0.15891346       0.07416116
S       -3.18201700      10.23438829       7.90365155      -0.09628781      -0.16903435      -0.29674644
Mo      -6.41881173      12.11159303       9.43873343      -0.71435350      -0.08808702      -0.09303408
S       -4.77034540      13.07281108      10.99771407      -0.36009508      -0.66309496       0.10462873
S       -4.82210900      12.92958069       7.85484417       0.25848714       0.60797488       0.13261699
Mo      -8.05383125      14.86294955       9.42113906      -0.50800628      -0.45726298       0.41520411
S       -6.38663905      15.76424594      10.98310873      -0.66169782       0.23589614       0.14123173
S       -6.47174738      15.76505499       7.89539116       0.24400797       0.41351849      -0.27999853
Mo       3.20502175       0.94320853       9.45649000       0.03938904      -0.34450211      -0.56923324
S        4.83659848       1.89609861      10.96659181      -0.09302945      -0.08706655       0.29496518
S        4.84630319       1.84975505       7.88484265      -0.51820327       0.22227675      -0.16657072
Mo       1.60522572       3.70632424       9.44365144       0.02777948       0.23108792       0.21436547
S        3.21390583       4.71951636      11.01839402      -0.07005125      -0.70214565      -0.51658708
S        3.19527070       4.63313943       7.85177017       0.03908462      -0.02501143       0.14243680
Mo      -0.00842259       6.50674690       9.44419595      -0.01061634       0.06282079      -0.96221248
S        1.63125813       7.40347092      10.98867166      -0.28308926       0.34652043      -0.09057019
S        1.58488175       7.54570496       7.82769183      -0.05148480      -0.70643785       0.57920912
Mo      -1.55779314       9.24355987       9.40281674      -0.67770114       0.68089857       0.34396038
S        0.00577146      10.18259766      11.05686530       0.02934940       0.15161435      -0.49824663
S        0.02496848      10.26901514       7.87672900       0.19262731      -0.50211922       0.14662461
Mo      -3.18627463      12.08324740       9.45067992      -0.08233778      -0.03162148      -0.17565571
S       -1.59506918      13.09363198      10.96504708       0.11324630      -0.61712852       0.40962584
S       -1.53827559      12.92409500       7.88200422      -0.41386919       0.66591392      -0.03934174
Mo      -4.84378144      14.84213637       9.41596231       0.43390760       0.30993157      -0.68769013
S       -3.22856137      15.81283900      10.92663567      -0.01967100      -0.03700460       0.47226100
S       -3.27286010      15.83853930       7.84566852       0.20409031      -0.45279903      -0.07840759
Mo       6.43493668       0.95219881       9.41424960      -0.09801662      -0.01642755      -0.23800728
S        8.02126081       1.90981766      10.93777504       0.21729833      -0.07433779       0.13643610
S        8.01319158       1.86943286       7.80801788       0.17194124       0.02784145       0.29504514
Mo       4.83966282       3.74603323       9.41575184      -0.57706611      -0.00716078      -0.00275699
S        6.40708536       4.67151995      10.99534872       0.47943386       0.09846991      -0.67499711
S        6.37672774       4.63853436       7.76925697       0.39069121       0.13212513       0.44055776
Mo       3.17447296       6.49331941       9.38754717       0.52196145       0.49332091       0.05017868
S        4.81460938       7.37599033      10.97100198       0.18991968       0.09995961      -0.39859632
S        4.81374820       7.44959628       7.85569376      -0.10645370      -0.21384251      -0.20083992
Mo       1.63528599       9.32648821       9.45715809      -0.20663622      -0.28606222       0.43021266
S        3.30452109      10.26165648      11.04580123      -0.42412892      -0.37734153      -0.38281849
S        3.22728311      10.19235836       7.89781830       0.26226049       0.39710997      -0.00072968
Mo       0.03343548      12.05280674       9.47271729       0.14232573       0.42654293      -0.04379514
S        1.67150777      13.02924029      10.96171821      -0.29994130       0.00881683       0.40213390
S        1.68822744      12.97726429       7.87721945      -0.58384971       0.03366423       0.01846875
Mo      -1.63751811      14.87701037       9.38898955       0.70537392       0.11500647      -0.29491505
S       -0.01512861      15.83970556      10.99159311      -0.07031890      -0.45669091      -0.56377453
S       -0.00436384      15.78251999       7.83221207      -0.14317496      -0.07905679       0.08257252
Mo       9.62470431       0.92058416       9.39436132       0.11729475       0.34153403      -0.15470096
S       11.22562220       1.87770291      10.94903219       0.36701726      -0.16618531      -0.23813429
S       11.24801486       1.78785036       7.82549254       0.10652877       0.50724523       0.04662567
Mo       8.02063327       3.75134707       9.36803928       0.03820582      -0.23608435      -0.22966867
S        9.67896843       4.60318922      10.90273111      -0.06258579       0.42479612       0.18878556
S        9.70199829       4.63296951       7.80502691      -0.31599141       0.20192904       0.11080298
Mo       6.44655105       6.48737030       9.34465993      -0.02468053       0.06576316       0.82787542
S        8.06338921       7.43723658      10.94582882       0.00456654      -0.46417694      -0.32172137
S        8.10635177       7.44510887       7.81890237      -0.21555795      -0.45321221      -0.11493782
Mo       4.83838264       9.25831968       9.44566730       0.07065289       0.48856077      -0.13311372
S        6.46099999      10.21259807      10.96402564      -0.02996466      -0.14050796       0.00625061
S        6.43602571      10.20911086       7.83745640      -0.28757763      -0.12791650       0.04496679
Mo       3.27143510      12.09160820       9.44641069      -0.18424191      -0.53472749      -0.29556374
S        4.83289501      13.01861261      10.98895550       0.39563004       0.06816971       0.05297218
S        4.81145043      13.05190521       7.86063494       0.30480428      -0.37938735      -0.04614693
Mo       1.61706987      14.86694072       9.39110968      -0.22935989       0.42397877       0.36506605
S        3.14827064      15.84523759      11.00906391       0.56456335      -0.12647102      -0.63798891
S        3.21274729      15.80347799       7.81578976       0.09650636      -0.01347721       0.42992753
Mo      12.91078916       0.96076043       9.38212134      -1.28254648      -0.85864844       0.17275885
S       14.47418384       1.87912792      10.91362912       0.36891294      -0.01027927       0.30734427
S       14.44281442       1.86249706       7.79035207       0.53590095      -0.11664401      -0.07628874
Mo      11.29081714       3.70279842       9.36317727      -0.25925384      -0.04734918      -0.50234574
S       12.87370041       4.58723032      10.93461994       0.04878103       0.28911207      -0.00798970
S       12.88385888       4.72473945       7.76110857      -0.13985670      -0.62050824       0.41464489
Mo       9.71259700       6.50034982       9.38170620      -0.14626903       0.29692462       0.33895059
S       11.33845634       7.47772758      11.00676227      -0.47341620      -0.45806594      -0.44429074
S       11.33828642       7.50549201       7.86040130      -0.35796929      -0.40285176       0.03986238
Mo       8.03349500       9.25974855       9.37401348       0.24268823       0.43972960       0.33916065
S        9.61478334      10.18582999      10.95622673      -0.16046820       0.15368846       0.29734680
S        9.64339158      10.20116520       7.83226228       0.01873974       0.19304717       0.17383228
Mo       6.43910164      12.05875006       9.39628064       0.00174732       0.56897639       0.11406082
S        8.04871630      13.02845441      10.95775021      -0.28111259      -0.13537064      -0.00930714
S        8.07800807      12.96965461       7.83735406      -0.40769160       0.12286376      -0.08888201
Mo       4.80234043      14.87253068       9.42844173      -0.07498571       0.24782632      -0.36758702
S        6.42580545      15.74457585      10.92833872       0.25381853       0.66001015       0.16399422
S        6.42390931      15.81153564       7.82468156      -0.12947947      -0.32439300       0.08822483
Mo      16.10069582       0.93900303       9.37314458      -0.51473125       0.05133413      -0.05677690
S       17.66045847       1.94742196      10.91503288       0.34117125      -0.84009022      -0.01852377
S       17.72077210       1.82158899       7.79401885      -0.33136146       0.43671910      -0.21606805
Mo      14.45566843       3.70204923       9.33580095       0.22321032       0.39294607       0.11524636
S       16.04977602       4.66805205      10.90556181       0.24203697      -0.66648753       0.11291899
S       16.08861803       4.62223756       7.81345337       0.00965732       0.29068404      -0.22274444
Mo      12.89746787       6.48696674       9.40919450      -0.25172051       0.46651201       0.24847912
S       14.50325163       7.39501936      10.97002495      -0.20818916       0.49612315       0.05691085
S       14.46764195       7.46040740       7.88624834       0.16616320       0.19523878      -0.34693952
Mo      11.24192286       9.32798659       9.43621167       0.64145887      -0.23912339      -0.08454173
S       12.85368276      10.30158558      10.98979931       0.17224077      -0.46027632       0.10785778
S       12.83385819      10.24338436       7.87745502       0.30758878       0.24240335       0.01357208
Mo       9.62237758      12.05895087       9.43086501       0.52602688      -0.14421986      -0.35397149
S       11.21106320      12.95073950      11.03607335       0.33011679       0.61262421      -0.64981881
S       11.21239359      12.99196231       7.83665894       0.45252470       0.09696684       0.65672145
Mo       8.04843439      14.85670308       9.35912817      -0.09601888      -0.03871850       0.00080347
S        9.58748426      15.79188486      10.94601612       0.39410821       0.13986544      -0.18397580
S        9.67936233      15.80169384       7.79239496      -0.05260117      -0.42152182       0.15795032
108
Lattice="19.734696120431245 -0.0 0.0 -9.867348060215622 17.09074020769647 0.0 0.0 -0.0 20.066535035696297" Properties=species:S:1:pos:R:3:forces:R:3 config_type=mono energy=-111389.65596125176 stress="-0.005043439780290588 7.437076683115559e-05 -0.00025524781702544757 7.437076683115559e-05 -0.0050416034650601895 0.0005619124605020645 -0.00025524781702544757 0.0005619124605020645 -0.0007914518643019274" free_energy=-111389.65596125176 pbc="T T T"
Mo       0.01296175       0.91085095      10.11965220      -0.50430569      -0.14151403      -0.36283356
Se       1.62381816       1.87586378      11.76054877       0.41751347      -0.01186770       0.43305630
Se       1.59872944       1.88344190       8.41014994       0.41542522      -0.31648943      -0.10467835
Mo      -1.62380237       3.77034132      10.10070492       0.04337245       0.41309632      -0.76215725
Se       0.00149786       4.77326253      11.75284829       0.04454436      -0.24280727       0.11057466
Se       0.05320671       4.76076849       8.34361441      -0.47445775      -0.28322630       0.59345792
Mo      -3.27952364       6.65632552      10.02918638       0.45495053      -0.48396749       0.44249302
Se      -1.65492399       7.59882501      11.76042839       0.02371894       0.16846639      -0.27682194
Se      -1.57498071       7.67802429       8.39156578      -0.59189983      -0.29948698      -0.05157042
Mo      -4.90226034       9.48730518      10.07637993      -0.41468680       0.24161788      -0.05787836
Se      -3.28886210      10.46845901      11.78549737       0.13722132       0.14440164      -0.31094485
Se      -3.31955153      10.48498287       8.41240167       0.57335832      -0.11451642      -0.28332374
Mo      -6.58541679      12.29592345      10.06220450       0.51443172       0.00692347       0.02574060
Se      -4.92925346      13.25937723      11.73878337      -0.06615706       0.23693333      -0.09043547
Se      -4.94536289      13.24133183       8.34955258       0.08948030       0.26367126       0.22028081
Mo      -8.22305910      15.18975219      10.05269238       0.30008065      -0.23450312       0.75793653
Se      -6.53335468      16.12200936      11.72357779      -0.19616077       0.02724958       0.18963248
Se      -6.55395771      16.15098385       8.39755526      -0.06300977       0.12812758      -0.15874094
Mo       3.32014751       0.96132836      10.09785720      -0.23653223       0.05893200      -0.50938413
Se       4.98620779       1.91142175      11.76263473       0.12220042      -0.44279924      -0.05346172
Se       4.96247485       1.93933056       8.38008610      -0.16822188      -0.63309996      -0.00705459
Mo       1.62722437       3.74572624      10.07564186       0.16650181       0.78827837       0.16314884
Se       3.26635863       4.76466807      11.77109499       0.30051362      -0.46723886      -0.28062203
Se       3.32220979       4.64260305       8.40980064      -0.34047525       0.38539628      -0.13988935
Mo      -0.00936609       6.65314824      10.06953397       0.23002503      -0.14075041       0.16022266
Se       1.70465148       7.58806565      11.71215732      -0.49289127       0.14751344       0.10796448
Se       1.59575542       7.58698419       8.39760065       0.44664896      -0.11875848      -0.47151949
Mo      -1.61789183       9.56253976      10.08202011      -0.38323038      -0.55072387       0.12228398
Se       0.02051422      10.43480346      11.76424508       0.21888007       0.28176462       0.02780160
Se       0.02174961      10.48471448       8.39531734      -0.27600484       0.03717867      -0.52919551
Mo      -3.25934294      12.38165886      10.05487306      -0.37291255      -0.54902411       0.30544526
Se      -1.61072024      13.26515160      11.76650075       0.12645842       0.42904744      -0.30009685
Se      -1.63162126      13.28943317       8.34414922       0.27121847      -0.05442794       0.30930011
Mo      -4.90932339      15.16842293      10.03273073       0.02419305      -0.19170299       0.15535248
Se      -3.25336333      16.10256872      11.70768149      -0.10832135       0.19354108       0.18458078
Se      -3.23930038      16.08318530       8.35301799      -0.41845990       0.18029450      -0.37889962
Mo       6.62471449       0.90363003      10.00465813      -0.89211752       0.43571945       0.78011924
Se       8.19009624       1.93418375      11.70489101       0.49957331      -0.28225288      -0.32652547
Se       8.18739258       1.87247928       8.32842067       0.18414627       0.11917269      -0.74335683
Mo       4.97265795       3.76626808      10.09058300      -0.06971469       0.69874896       0.19197785
Se       6.69522853       4.78552172      11.69459541      -0.55138901      -0.29527063      -0.04891369
Se       6.52269400       4.77353684       8.34435446       0.27605266      -0.54009673      -0.30248232
Mo       3.29636326       6.61259146      10.03194332      -0.46082550      -0.18365673      -0.36334727
Se       4.91212374       7.54664055      11.65670677       0.17248708       0.41770708       0.73200104
Se       4.87746172       7.59822112       8.33023823      -0.00768066       0.03922732      -0.15220802
Mo       1.62493120       9.50789044      10.01954401       0.36176013      -0.18608976       0.78810328
Se       3.26091382      10.46151240      11.70945367      -0.05376845       0.01092770       0.14468060
Se       3.26755258      10.42972967       8.34262768      -0.09300786       0.17420150      -0.09485160
Mo       0.05459604      12.35477626      10.07140087      -0.62162821       0.35757052      -0.06065284
Se       1.69916720      13.38930258      11.71496162      -0.20844653      -0.32283363       0.12616506
Se       1.61429814      13.37420553       8.33649019       0.17709964      -0.28863564       0.22448327
Mo      -1.62753618      15.19175921      10.03329317       0.51938546      -0.51152612       0.31389493
Se       0.04475829      16.18218243      11.68485240      -0.58089371       0.21124364       0.35946928
Se       0.00654008      16.15399931       8.34268491      -0.19322380      -0.12310853      -0.37091711
Mo       9.84804358       0.96586536       9.96589524      -0.05635421       0.28465377       1.03499295
Se      11.45370385       1.97945317      11.68360516       0.25475647      -0.34198526      -0.40021895
Se      11.44747755       1.89160220       8.26239824       0.48063431       0.22964116       0.06412717
Mo       8.24540667       3.78000146       9.95408797      -0.25469399       0.48768248       0.62769447
Se       9.91638286       4.74847969      11.63670960      -0.30918441       0.14304667       0.00033579
Se       9.86012911       4.78781686       8.29931199       0.09947547      -0.04770219      -0.26935108
Mo       6.53613530       6.64555038       9.97876818       0.61313226       0.20027608       0.24485644
Se       8.15873386       7.59392093      11.67856887       0.28261206      -0.06771720       0.20667967
Se       8.21349567       7.57090633       8.30363586      -0.26855815       0.24850792      -0.06237805
Mo       4.88888416       9.49669494      10.04862703       0.32975092      -0.19565992      -0.67474360
Se       6.53210745      10.48192991      11.69990602       0.14468009      -0.47588188       0.00492238
Se       6.54704662      10.38279464       8.28927887      -0.15043319       0.15513394       0.33841554
Mo       3.25836607      12.35302579      10.01463402       0.15238491       0.18932395      -0.25619577
Se       4.94174355      13.25877532      11.67225179      -0.25191772       0.12004224       0.15807605
Se       4.86472100      13.29267953       8.28424258       0.13862257      -0.02182969       0.31691778
Mo       1.64193461      15.27496858      10.03403914       0.75854640      -0.42617475      -0.53794189
Se       3.29558374      16.24057739      11.71689759      -0.10891733      -0.39951986      -0.13348113
Se       3.29766377      16.20911831       8.29041954      -0.07599435      -0.37877183       0.36783847
Mo      13.12836648       0.98713739       9.98441625      -0.55545264       0.09620785       0.18587713
Se      14.70660933       1.90624140      11.68634236       0.48534843       0.15466163       0.48300667
Se      14.81960231       1.91207497       8.39871566       0.21021031      -0.14063780      -0.62503569
Mo      11.52544341       3.81504041       9.94123674       0.08232107      -0.05197922       0.17738118
Se      13.16352581       4.78943116      11.63874820      -0.07033638      -0.27416830       0.30129498
Se      13.23985172       4.72252462       8.31269804      -0.24543314       0.34443244      -0.28802397
Mo       9.84429201       6.68691430       9.99421453       0.09388897      -0.68746928       0.01725982
Se      11.50287679       7.58627571      11.64919180       0.12639775       0.07419432       0.38695951
Se      11.54469856       7.57900940       8.34317235      -0.22945296       0.33690579      -0.37360726
Mo       8.17969408       9.46528126      10.01738701      -0.18874725       0.36365992      -0.42233403
Se       9.82236677      10.45893505      11.66050767       0.14058586      -0.24031304       0.37417470
Se       9.81430317      10.39284947       8.31370056       0.28356645       0.45387916       0.20219335
Mo       6.52361364      12.30030060       9.96185555       0.49488157       0.50610443       0.04332206
Se       8.21422980      13.21944802      11.69867458      -0.36680489       0.26789429      -0.25148629
Se       8.17125158      13.33171279       8.31684232       0.33482551      -0.50592960       0.04646215
Mo       4.89503744      15.17995786      10.03116183      -0.02736554       0.09751577      -0.48704176
Se       6.53444404      16.08032179      11.71745806       0.04318476       0.11160722       0.32047644
Se       6.56385466      16.09230667       8.35923245      -0.05598089       0.51591525       0.10532833
Mo      16.41961845       0.92254968      10.09815717       0.09310042      -0.16899373      -0.26577853
Se      18.09719787       1.89612539      11.78814182      -0.24580080      -0.27769868       0.03097742
Se      18.08038588       1.83327433       8.45560881       0.20854835       0.22315530      -0.28740974
Mo      14.83910413       3.81223414      10.02474608      -0.05236951      -0.08159396       0.08795692
Se      16.44360005       4.66809436      11.77745746       0.05877208       0.77282502      -0.41452816
Se      16.51780646       4.72133265       8.33204593       0.01242177       0.20409237       0.43755316
Mo      13.19607227       6.65934888       9.97905828       0.07839756       0.08584425       0.35769573
Se      14.82477872       7.61863469      11.73025009      -0.12437120      -0.51968551      -0.03481017
Se      14.86356332       7.63105571       8.34660619      -0.04081343      -0.10367485      -0.19432063
Mo      11.49851147       9.50219698      10.01942363       0.02531020      -0.28537034      -0.19124148
Se      13.14397860      10.39628133      11.75222467      -0.09239645       0.13115660      -0.10810615
Se      13.18181396      10.38176054       8.35835031      -0.06873793       0.36363575       0.09605796
Mo       9.85376072      12.34261968      10.00984046       0.05875099      -0.05800589      -0.48645992
Se      11.51439198      13.29768820      11.72513288      -0.21061474      -0.23050917      -0.01945297
Se      11.58484288      13.26182039       8.37599905      -0.58836842       0.23658546      -0.20108804
Mo       8.19082247      15.16497922      10.03887217       0.33049449       0.01395826       0.29532077
Se       9.77283268      16.12207844      11.80355659       0.64308715      -0.36623539      -0.41732064
Se       9.92603707      16.10218784       8.40690161      -0.69040779       0.34839091      -0.28920308
108
Lattice="18.9539586507706 -0.0 0.0 -9.4769793253853 16.41460204053361 0.0 0.0 -0.0 18.914951403867313" Properties=species:S:1:pos:R:3:forces:R:3 config_type=mono energy=-101975.01502161326 stress="-0.007226818589234884 -8.5388658213549e-05 -0.000693208999475586 -8.5388658213549e-05 -0.006875164222613494 7.804339729195339e-05 -0.000693208999475586 7.804339729195339e-05 -0.001448852716784735" free_energy=-101975.01502161326 pbc="T T T"
W        0.04002697       0.91176881       9.42561220      -0.68944260       0.07652169       0.39223644
S        1.58915486       1.77982221      11.08081403      -0.53355893       0.64768634       0.20570831
S        1.56515157       1.85663312       7.83093037       0.28443394       0.01625580       0.51893424
W       -1.53653678       3.63335067       9.50168012      -0.74706925       0.52106002      -0.02046624
S        0.01210210       4.58170820      11.04352022       0.27341445       0.22938894       0.28092927
S       -0.00002085       4.50601557       7.87542100       0.41808349       0.47153132       0.26224070
W       -3.18279612       6.35154546       9.48646957       0.00481593       0.43829030      -0.18341890
S       -1.62514464       7.31023290      11.03613196       0.61226091       0.01216569      -0.31334831
S       -1.63130846       7.27422417       7.85000184       0.07995591       0.21614210       0.20679794
W       -4.73005515       9.08192197       9.50396976       0.21648226       0.31516943      -0.30159426
S       -3.15888760       9.98489235      11.09192484       0.19333076       0.39703104      -0.26099011
S       -3.19972580      10.05001246       7.87492251       0.10342622      -0.03345545       0.24214290
W       -6.31215156      11.83758873       9.49753300       0.29609004      -0.23272957      -0.01597992
S       -4.69001112      12.77807089      11.06699090      -0.75620103       0.24369070       0.28922622
S       -4.75803309      12.72016465       7.90544786       0.24144484       0.69367412       0.06021446
W       -7.87543805      14.55356023       9.45495672      -0.47087955       0.39513099      -0.00180209
S       -6.34304651      15.49980628      11.06869866       0.19370640       0.03273169      -0.06108813
S       -6.33673484      15.53679114       7.92285328       0.31380648      -0.24207913      -0.55611933
W        3.10108181       0.94062052       9.49103369       1.13643480      -0.33755859      -0.24833077
S        4.71938028       1.90591721      11.07741179      -0.16963496      -0.57002488      -0.00543711
S        4.71483891       1.76890662       7.89330974      -0.17144630       0.78560623      -0.10528770
W        1.61345952       3.64138146       9.51460104      -0.11546439       0.22718705      -0.72696245
S        3.21352807       4.66235351      11.09195137      -0.39379813      -0.56889308      -0.54556906
S        3.17029978       4.54472334       7.85621116      -0.21826969       0.18945868       0.34267097
W       -0.00745838       6.40443080       9.41144791       0.03416970      -0.17839291       0.83859332
S        1.57961154       7.32240134      11.06226758      -0.23724006       0.04280732      -0.85230270
S        1.55710561       7.35555371       7.83472685       0.01968771      -0.67024751      -0.38961469
W       -1.59077163       9.15201370       9.42738629      -0.46836218      -0.91933033       0.46335856
S       -0.04294209      10.05424488      11.02431607       0.68173417      -0.42149303      -0.06779176
S       -0.04309372      10.05165577       7.85743558       0.48617915       0.17390865      -0.27267860
W       -3.17049500      11.85673792       9.51544259       0.16342317      -0.52221496      -0.70713590
S       -1.58518021      12.77071676      11.06490597       0.17701891      -0.04855503       0.20985807
S       -1.62280572      12.80814893       7.91450406       0.18925248      -0.59457043      -0.23738481
W       -4.73924593      14.62772707       9.47968785       0.00606755      -0.58009615      -0.14735249
S       -3.18603156      15.54412443      11.06528694       0.09357838       0.05605005       0.13255117
S       -3.10170161      15.54694857       7.92399051      -0.91851375      -0.05536588      -0.54537160
W        6.29410739       0.97063222       9.48244944      -0.01740097      -0.95651748       0.03555270
S        7.85731996       1.82360206      11.02434260       0.70256782       0.50904706       0.38307175
S        7.91745329       1.80109803       7.90165896      -0.38987926       0.48362759      -0.55374723
W        4.73208702       3.66170959       9.46800273      -0.01343967       0.16345608      -0.48686178
S        6.33422723       4.60695488      10.97984818       0.03190225       0.07366236       0.41734018
S        6.33768064       4.51018354       7.86721393      -0.28035077       0.52877590      -0.34021557
W        3.12758893       6.41500711       9.41952609       0.46044498      -0.12883001       0.09587541
S        4.73710413       7.30522716      10.98583953      -0.07223951       0.41524447      -0.02301960
S        4.73081900       7.34015362       7.82834884      -0.26121585      -0.30108389      -0.25259649
W        1.60677825       9.13087056       9.39667519      -1.25208764       0.32776295       1.13803608
S        3.10918084      10.01796132      11.02861672       0.78862342       0.29234626      -0.13293478
S        3.19107332      10.05514140       7.85376231      -0.40434197       0.39497081      -0.50330347
W        0.00803458      11.85855371       9.46803685      -0.29891851       0.66261314      -0.16649410
S        1.58432918      12.79296491      11.09053172       0.05810770      -0.20682571      -0.43695538
S        1.57246590      12.78943948       7.85548522       0.04035449      -0.12421514       0.41249725
W       -1.61260849      14.59095828       9.48076822       0.68391755       0.30720800       0.57554838
S       -0.02327357      15.50908993      11.04131777       0.14189610      -0.04370798       0.26110658
S        0.00715512      15.44521130       7.89382150      -0.26405718       0.41883476      -0.19103554
W        9.46610733       0.89888580       9.44311239       0.44751567      -0.05082325       0.52844475
S       11.06881807       1.78291928      11.07090300      -0.32089142      -0.02499421      -0.21518077