108
Lattice="18.735476198403255 -0.0 0.0 -9.367738099201627 16.22539077472218 0.0 0.0 -0.0 18.813827959864977" Properties=species:S:1:pos:R:3:forces:R:3 config_type=mono energy=-92200.5979933112 stress="-0.015284569820225273 -0.0 -0.0 -0.0 -0.015284569820225273 -0.0 -0.0 -0.0 -0.008216592498419894" free_energy=-92200.5979933112 pbc="T T T"
Mo       0.00000000       0.90141060       9.40691398       0.00000000      -0.00000026       0.00000000
S        1.56128906       1.80282120      10.97699934      -0.00000283      -0.00000051       0.42666429
S        1.56128906       1.80282120       7.83682862      -0.00000283      -0.00000051      -0.42666429
Mo      -1.56128906       3.60564427       9.40691398      -0.00000643       0.00000463       0.00000000
S       -0.00000000       4.50705487      10.97699934       0.00000000      -0.00000026       0.42666403
S       -0.00000000       4.50705487       7.83682862       0.00000000      -0.00000026      -0.42666403
Mo      -3.12257999       6.30987794       9.40691398      -0.00000771       0.00000257       0.00000000
S       -1.56128906       7.21128854      10.97699934       0.00000566       0.00000077       0.42666583
S       -1.56128906       7.21128854       7.83682862       0.00000566       0.00000077      -0.42666583
Mo      -4.68386905       9.01410973       9.40691398      -0.00000180       0.00000026       0.00000000
S       -3.12257999       9.91552033      10.97699934       0.00001028       0.00000000       0.42667148
S       -3.12257999       9.91552033       7.83682862       0.00001028       0.00000000      -0.42667148
Mo      -6.24515811      11.71834340       9.40691398       0.00000334      -0.00000257       0.00000000
S       -4.68386905      12.61975400      10.97699934       0.00000360       0.00000257       0.42667457
S       -4.68386905      12.61975400       7.83682862       0.00000360       0.00000257      -0.42667457
Mo      -7.80644904      14.42257707       9.40691398       0.00000540      -0.00000771       0.00000000
S       -6.24515811      15.32398767      10.97699934      -0.00000566       0.00000334       0.42666814
S       -6.24515811      15.32398767       7.83682862      -0.00000566       0.00000334      -0.42666814
Mo       3.12257999       0.90141060       9.40691398       0.00000977      -0.00000154       0.00000000
S        4.68386905       1.80282120      10.97699934      -0.00000566      -0.00000283       0.42667123
S        4.68386905       1.80282120       7.83682862      -0.00000566      -0.00000283      -0.42667123
Mo       1.56128906       3.60564427       9.40691398       0.00000643       0.00000463       0.00000000
S        3.12257999       4.50705487      10.97699934      -0.00000771      -0.00000231       0.42667020
S        3.12257999       4.50705487       7.83682862      -0.00000771      -0.00000231      -0.42667020
Mo       0.00000000       6.30987794       9.40691398       0.00000000       0.00000489       0.00000000
S        1.56128906       7.21128854      10.97699934      -0.00000566       0.00000077       0.42666583
S        1.56128906       7.21128854       7.83682862      -0.00000566       0.00000077      -0.42666583
Mo      -1.56128906       9.01410973       9.40691398      -0.00000489       0.00000257       0.00000000
S       -0.00000000       9.91552033      10.97699934       0.00000000       0.00000026       0.42666249
S       -0.00000000       9.91552033       7.83682862       0.00000000       0.00000026      -0.42666249
Mo      -3.12257999      11.71834340       9.40691398      -0.00000360       0.00000206       0.00000000
S       -1.56128906      12.61975400      10.97699934       0.00000540      -0.00000129       0.42666660
S       -1.56128906      12.61975400       7.83682862       0.00000540      -0.00000129      -0.42666660
Mo      -4.68386905      14.42257707       9.40691398       0.00000591      -0.00000411       0.00000000
S       -3.12257999      15.32398767      10.97699934       0.00000257      -0.00000129       0.42667148
S       -3.12257999      15.32398767       7.83682862       0.00000257      -0.00000129      -0.42667148
Mo       6.24515811       0.90141060       9.40691398       0.00000334      -0.00000051       0.00000000
S        7.80644904       1.80282120      10.97699934       0.00000206      -0.00000257       0.42667097
S        7.80644904       1.80282120       7.83682862       0.00000206      -0.00000257      -0.42667097
Mo       4.68386905       3.60564427       9.40691398       0.00000643       0.00000077       0.00000000
S        6.24515811       4.50705487      10.97699934      -0.00000077      -0.00000514       0.42667534
S        6.24515811       4.50705487       7.83682862      -0.00000077      -0.00000514      -0.42667534
Mo       3.12257999       6.30987794       9.40691398       0.00000771       0.00000257       0.00000000
S        4.68386905       7.21128854      10.97699934      -0.00000823      -0.00000283       0.42667714
S        4.68386905       7.21128854       7.83682862      -0.00000823      -0.00000283      -0.42667714
Mo       1.56128906       9.01410973       9.40691398       0.00000489       0.00000257       0.00000000
S        3.12257999       9.91552033      10.97699934      -0.00001028       0.00000000       0.42667148
S        3.12257999       9.91552033       7.83682862      -0.00001028       0.00000000      -0.42667148
Mo       0.00000000      11.71834340       9.40691398       0.00000000       0.00000514       0.00000000
S        1.56128906      12.61975400      10.97699934      -0.00000540      -0.00000129       0.42666660
S        1.56128906      12.61975400       7.83682862      -0.00000540      -0.00000129      -0.42666660
Mo      -1.56128906      14.42257707       9.40691398      -0.00000103       0.00000257       0.00000000
S        0.00000000      15.32398767      10.97699934       0.00000000      -0.00000283       0.42666737
S        0.00000000      15.32398767       7.83682862       0.00000000      -0.00000283      -0.42666737
Mo       9.36773810       0.90141060       9.40691398       0.00000000       0.00000206       0.00000000
S       10.92902716       1.80282120      10.97699934      -0.00000206      -0.00000257       0.42667097
S       10.92902716       1.80282120       7.83682862      -0.00000206      -0.00000257      -0.42667097
Mo       7.80644904       3.60564427       9.40691398       0.00000051       0.00000026       0.00000000
S        9.36773810       4.50705487      10.97699934       0.00000000      -0.00000386       0.42667200
S        9.36773810       4.50705487       7.83682862       0.00000000      -0.00000386      -0.42667200
Mo       6.24515811       6.30987794       9.40691398       0.00000103      -0.00000051       0.00000000
S        7.80644904       7.21128854      10.97699934       0.00000206      -0.00000360       0.42667843
S        7.80644904       7.21128854       7.83682862       0.00000206      -0.00000360      -0.42667843
Mo       4.68386905       9.01410973       9.40691398       0.00000180       0.00000026       0.00000000
S        6.24515811       9.91552033      10.97699934      -0.00000206       0.00000334       0.42667971
S        6.24515811       9.91552033       7.83682862      -0.00000206       0.00000334      -0.42667971
Mo       3.12257999      11.71834340       9.40691398       0.00000360       0.00000206       0.00000000
S        4.68386905      12.61975400      10.97699934      -0.00000360       0.00000257       0.42667457
S        4.68386905      12.61975400       7.83682862      -0.00000360       0.00000257      -0.42667457
Mo       1.56128906      14.42257707       9.40691398       0.00000103       0.00000257       0.00000000
S        3.12257999      15.32398767      10.97699934      -0.00000257      -0.00000129       0.42667148
S        3.12257999      15.32398767       7.83682862      -0.00000257      -0.00000129      -0.42667148
Mo      12.49031809       0.90141060       9.40691398      -0.00000334      -0.00000051       0.00000000
S       14.05160715       1.80282120      10.97699934       0.00000566      -0.00000283       0.42667123
S       14.05160715       1.80282120       7.83682862       0.00000566      -0.00000283      -0.42667123
Mo      10.92902716       3.60564427       9.40691398      -0.00000051       0.00000026       0.00000000
S       12.49031809       4.50705487      10.97699934       0.00000077      -0.00000514       0.42667534
S       12.49031809       4.50705487       7.83682862       0.00000077      -0.00000514      -0.42667534
Mo       9.36773810       6.30987794       9.40691398       0.00000000       0.00000103       0.00000000
S       10.92902716       7.21128854      10.97699934      -0.00000206      -0.00000360       0.42667843
S       10.92902716       7.21128854       7.83682862      -0.00000206      -0.00000360      -0.42667843
Mo       7.80644904       9.01410973       9.40691398      -0.00000077       0.00000077       0.00000000
S        9.36773810       9.91552033      10.97699934       0.00000000       0.00000771       0.42667714
S        9.36773810       9.91552033       7.83682862       0.00000000       0.00000771      -0.42667714
Mo       6.24515811      11.71834340       9.40691398      -0.00000334      -0.00000257       0.00000000
S        7.80644904      12.61975400      10.97699934       0.00000437       0.00000823       0.42667071
S        7.80644904      12.61975400       7.83682862       0.00000437       0.00000823      -0.42667071
Mo       4.68386905      14.42257707       9.40691398      -0.00000591      -0.00000411       0.00000000
S        6.24515811      15.32398767      10.97699934       0.00000566       0.00000334       0.42666814
S        6.24515811      15.32398767       7.83682862       0.00000566       0.00000334      -0.42666814
Mo      15.61289621       0.90141060       9.40691398      -0.00000977      -0.00000154       0.00000000
S       17.17418714       1.80282120      10.97699934       0.00000283      -0.00000051       0.42666429
S       17.17418714       1.80282120       7.83682862       0.00000283      -0.00000051      -0.42666429
Mo      14.05160715       3.60564427       9.40691398      -0.00000643       0.00000077       0.00000000
S       15.61289621       4.50705487      10.97699934       0.00000771      -0.00000231       0.42667020
S       15.61289621       4.50705487       7.83682862       0.00000771      -0.00000231      -0.42667020
Mo      12.49031809       6.30987794       9.40691398      -0.00000103      -0.00000051       0.00000000
S       14.05160715       7.21128854      10.97699934       0.00000823      -0.00000283       0.42667714
S       14.05160715       7.21128854       7.83682862       0.00000823      -0.00000283      -0.42667714
Mo      10.92902716       9.01410973       9.40691398       0.00000077       0.00000077       0.00000000
S       12.49031809       9.91552033      10.97699934       0.00000206       0.00000334       0.42667971
S       12.49031809       9.91552033       7.83682862       0.00000206       0.00000334      -0.42667971
Mo       9.36773810      11.71834340       9.40691398       0.00000000      -0.00000386       0.00000000
S       10.92902716      12.61975400      10.97699934      -0.00000437       0.00000823       0.42667071
S       10.92902716      12.61975400       7.83682862      -0.00000437       0.00000823      -0.42667071
Mo       7.80644904      14.42257707       9.40691398      -0.00000540      -0.00000771       0.00000000
S        9.36773810      15.32398767      10.97699934       0.00000000       0.00000257       0.42666326
S        9.36773810      15.32398767       7.83682862       0.00000000       0.00000257      -0.42666326
108
Lattice="18.735476198403255 -0.0 0.0 -9.367738099201627 16.22539077472218 0.0 0.0 -0.0 18.813827959864977" Properties=species:S:1:pos:R:3:forces:R:3 config_type=mono energy=-92199.432273409 stress="-0.012900114493552297 -0.00014231443035591501 -0.00024973887133425085 -0.00014231443035591501 -0.013450090905056767 0.0011715691169945004 -0.00024973887133425085 0.0011715691169945004 -0.0013570369552647896" free_energy=-92199.432273409 pbc="T T T"
Mo       0.02843483       0.89733563       9.36671702       0.04818607       0.04256538      -0.06160955
S        1.50066106       1.89046388      10.94936077       0.75234541      -1.01740995       0.56548792
S        1.62936254       1.80171206       7.79585600      -0.22641314      -0.23888737      -0.15781174
Mo      -1.52657035       3.58392236       9.35182606      -0.07731539       0.31048616       0.71641013
S        0.01126939       4.47676522      10.95551912       0.09843314       0.12887552       0.01088374
S        0.03709062       4.52157111       7.79742229      -0.04091679      -0.20528459      -0.39859041
Mo      -3.11281506       6.27731755       9.42525039       0.21940252       0.84740963       0.39090333
S       -1.54598780       7.25511831      10.99597089      -0.08642429      -0.91508338       0.15685555
S       -1.59885744       7.17844337       7.78829624       0.25602582       0.43370525       0.53576853
Mo      -4.66824741       8.97264250       9.44688799      -0.00365045       0.63427315       0.45719614
S       -3.11913828       9.88380492      11.07943931      -0.14645389       0.06101871      -0.18822378
S       -3.16101957       9.94251628       7.83930170       0.18612781      -0.29725681       0.34455919
Mo      -6.17838112      11.70148147       9.52871144      -1.74098445       0.18452242      -0.63517484
S       -4.67530881      12.70030531      11.08005383       0.16630538      -0.49531223       0.18671737
S       -4.71341864      12.57266238       7.87462556       0.40015390       0.49324300       0.34572390
Mo      -7.77489663      14.38466584       9.47906805      -0.99170329       1.18526442      -0.90350596
S       -6.22217717      15.35036160      11.03527604      -0.38305529       0.09926952       0.46527943
S       -6.24481150      15.34233158       7.88478394      -0.13623453      -0.36721550      -0.40421341
Mo       3.14460729       0.90849261       9.43749590      -0.25240520       0.51766334      -0.31544890
S        4.71670859       1.84426220      10.98138345      -0.14839096      -0.24432293       0.33467356
S        4.69511970       1.80099261       7.75714476      -0.33570457       0.02154327       0.37822933
Mo       1.60971277       3.59925547       9.35615208      -0.93015365       0.38064282       0.47224223
S        3.12349054       4.46359044      11.00963092       0.20517815      -0.06378058       0.04938909
S        3.12192425       4.51730317       7.82566602       0.36008454      -0.12066547      -0.71163328
Mo       0.00166746       6.29042489       9.39248392      -0.23121031       0.63433614       0.04553501
S        1.53333011       7.16967892      11.02825773       0.13411337       0.08433373      -0.16235102
S        1.54800935       7.24397819       7.80135486       0.07736501      -0.66679915       0.31258392
Mo      -1.60414833       9.00622959       9.43790433       0.63705354       0.12012657      -0.89019716
S        0.00351852       9.87517723      11.00126928      -0.11560065       0.32400451       0.14487781
S        0.00871762       9.87304701       7.83550964      -0.42691702       0.19363312       0.10441044
Mo      -3.13325734      11.69822712       9.49947847      -0.32538210       0.32485863      -0.47888056
S       -1.57328538      12.63519765      11.03243762       0.40237507       0.01001470       0.04802666
S       -1.59436467      12.54547346       7.86779274      -0.12926015       0.52815833      -0.10364245
Mo      -4.70594319      14.45181940       9.45124586       0.79634367      -0.73583661      -0.31333649
S       -3.10345107      15.33860322      11.01887501      -0.11134445       0.42674733      -0.26608501
S       -3.15078250      15.29532989       7.81953015      -0.02322272       0.13171864       0.07456945
Mo       6.20971246       0.92496297       9.36960790       1.21813880      -0.48586779       0.16703609
S        7.82566227       1.85832130      10.92654845      -0.22353762      -0.68666478       0.37578652
S        7.81360037       1.80002024       7.75842627      -0.09280860      -0.24426251      -0.04996271
Mo       4.69653985       3.59900442       9.38157987      -0.22676307       0.15996684      -0.29037756
S        6.26441068       4.51111484      10.92838640       0.15497530      -0.08965102       0.31179819
S        6.21968910       4.53489204       7.76044221       0.30730519      -0.38273339      -0.05001078
Mo       3.09366178       6.24639090       9.44136852      -0.20276774       1.04525499      -0.50452449
S        4.68186810       7.18844250      10.94433217       0.04737052       0.01108403       0.42913589
S        4.58423191       7.16423813       7.81482192       0.65249405       0.14272065      -0.07738249
Mo       1.56225206       8.98657795       9.42112484      -0.25846940      -0.12663069      -0.03837397
S        3.10487684       9.91771613      10.95875849       0.15887875      -0.05001747       0.49249327
S        3.09624166       9.88375621       7.81657182      -0.11080220       0.19980068      -0.44654405
Mo      -0.01828395      11.70251567       9.41994263       0.14705759      -0.10611611       0.27397932
S        1.56018179      12.66526247      10.95225165      -0.12075520      -0.33911179       0.32330517
S        1.51264614      12.60552066       7.81352168       0.04851697       0.09683469      -0.25757749
Mo      -1.56343614      14.43709332       9.41031634      -0.55726501      -0.69090761      -0.03969835
S       -0.01153731      15.37817254      10.94204082       0.26012596      -0.23988135       0.49479980
S       -0.06036008      15.28208765       7.78788031       0.53166402       0.51704550      -0.11255210
Mo       9.38625062       0.91730765       9.36979338      -0.27967329      -0.03208145      -0.44363691
S       10.96182174       1.82433327      10.95956786       0.06343734      -0.30513647       0.19504723
S       10.98020686       1.78514240       7.80726778       0.07942523       0.09859924      -0.12966485
Mo       7.80185323       3.56914381       9.33487233       0.43125602       1.57541955       0.00660336
S        9.38269088       4.47676897      10.96756229       0.00497586       0.09925847      -0.20665062
S        9.42318761       4.56352172       7.83214475      -0.05770867      -0.37376332      -0.19059871
Mo       6.25055393       6.29818513       9.36118630      -0.10967606       0.46673261      -0.03899592
S        7.79194966       7.26056471      10.96571122      -0.06014350      -0.31115490       0.01718602
S        7.83414007       7.21558833       7.79441337      -0.02198859      -0.19785539      -0.07847675
Mo       4.65359439       9.00348859       9.37322759      -0.10323133      -0.48626271      -0.24430854
S        6.19213484       9.87159126      10.92631426       0.39140880       0.43755548       0.37116677
S        6.21231669       9.89379093       7.76834858      -0.07666078       0.28451596       0.00741789
Mo       3.08511841      11.70334191       9.36914701       0.40351202       0.47218747      -0.04339328
S        4.66231014      12.58179031      10.95973648      -0.29736145       0.27615036       0.39323300
S        4.66255557      12.65784510       7.77198326      -0.21530572      -0.35671922       0.29513950
Mo       1.55735274      14.44761891       9.36992640      -0.11536591      -0.12242308      -0.17369293
S        3.10225762      15.30393134      10.99941822       0.08662921       0.24783429       0.10807092
S        3.18066559      15.31198385       7.79127893      -0.72129342       0.23118203       0.07307384
Mo      12.54774045       0.88766813       9.40640250      -0.59447248       0.35879385       0.00351804
S       14.12772939       1.85040931      11.00737892      -0.60940441      -0.29483226      -0.03483151
S       14.02996018       1.84760461       7.78803394       0.32580197       0.13847807       0.20338454
Mo      11.00095640       3.60038897       9.38125949      -0.49420434       0.56210306      -0.03746714
S       12.52126160       4.53124799      11.00040558      -0.21859596      -0.25042211       0.33645019
S       12.55941265       4.58314338       7.80862236      -0.34284195      -0.11487020       0.34659885
Mo       9.39159023       6.34678308       9.43653289      -0.24951065      -0.12822143      -0.02583162
S       10.92886416       7.33142228      11.02898654      -0.27241738      -0.85871940       0.39309596
S       10.93734946       7.28265946       7.88825375       0.16813472      -0.48844095      -0.56096329
Mo       7.80192442       9.03114965       9.33871123      -0.48585751      -0.20909548       0.52063065
S        9.27269490       9.94430926      10.99532639       0.46484542      -0.08278901      -0.13291061
S        9.36987582       9.90347904       7.77466243       0.18053978       0.55981658       0.18671583
Mo       6.17994554      11.72151157       9.38423469       1.01177537      -0.24179657      -0.43645145
S        7.77390177      12.63657284      11.00179387      -0.38357003       0.32426933      -0.62923199
S        7.78453041      12.61728092       7.80632351      -0.12476689       0.27840856       0.14421009
Mo       4.65297612      14.42783612       9.41720163       0.53483754      -0.26033165      -0.45808342
S        6.24122741      15.36002911      10.95941797      -0.32310719      -0.03339734       0.32048235
S        6.14749757      15.36881042       7.74955502       0.51435793      -0.17563823       0.42834656
Mo      15.58342905       0.92107161       9.37649506       0.80294446       0.20354010      -0.11874229
S       17.22541555       1.80523620      10.96729249      -0.44236138      -0.14351975      -0.17908171
S       17.21833542       1.76653807       7.81748049      -0.45922165       0.17560609      -0.67361360
Mo      14.08549775       3.64482577       9.42244569       0.09869771      -0.24572393      -0.72211926
S       15.65850210       4.47450947      11.00238966       0.24115945       0.10521288       0.03455743
S       15.68164042       4.56942527       7.82012219      -0.56495930      -0.81120619      -0.38444806
Mo      12.47850725       6.35004118       9.48513272       0.54410714      -0.07917686      -1.05473722
S       14.07476420       7.19041159      11.04527704       0.04799504      -0.09064116       0.13374339
S       14.07316231       7.20579717       7.84427409      -0.33782701      -0.09150068       0.20086409
Mo      10.92239480       9.05524160       9.42288785      -0.20119422       0.55766353       0.43998260
S       12.48370259       9.88692063      11.06947391       0.23027211       0.01780669      -0.06302057
S       12.53229118       9.90467811       7.87656281      -0.11062274       0.32319204       0.05880550
Mo       9.34028313      11.72761559       9.41209059      -0.08965668      -0.18194257      -0.06372196
S       10.84747912      12.64155835      11.05239652       0.64976225      -0.63498303       0.20760990
S       10.95505823      12.58720673       7.89661352       0.41697354      -0.01509006      -0.00552247
Mo       7.75242342      14.49429835       9.35469633       0.19147288      -1.42599398      -0.16936911
S        9.28891420      15.35239065      10.94225628       0.64495300      -0.17443084       0.49663197
S        9.39430688      15.29665261       7.79434405       0.22361733      -0.05758783       0.22605062
108
Lattice="18.735476198403255 -0.0 0.0 -9.367738099201627 16.22539077472218 0.0 0.0 -0.0 18.813827959864977" Properties=species:S:1:pos:R:3:forces:R:3 config_type=mono energy=-92199.59533830709 stress="-0.012841352406179531 -3.2135516531980806e-05 -0.0003911351440749664 -3.2135516531980806e-05 -0.012733927965201194 -0.0002506570289494503 -0.0003911351440749664 -0.0002506570289494503 -0.00035991778515818507" free_energy=-92199.59533830709 pbc="T T T"
Mo       0.03387749       0.89085690       9.37581309       0.07665924       0.33161677       0.71762009
S        1.54909414       1.90283866      10.97644103       0.14273839      -0.74762461       0.08066862
S        1.62203135       1.74555434       7.77776128      -0.22876622       0.54990240       0.34817262
Mo      -1.52977224       3.57638507       9.32273736       0.08677679       0.40341920       0.27330312
S        0.00309323       4.56410439      10.91350294      -0.24635642      -0.58727801       0.32199108
S       -0.01850878       4.54525650       7.71886818       0.30405352      -0.39777306       0.23508625
Mo      -3.12411630       6.24634594       9.37619904       0.45421880       0.52034809      -0.35823103
S       -1.62708430       7.23488025      10.96934028       0.55907224      -0.40509222      -0.13217450
S       -1.60453241       7.18705607       7.74380698      -0.03728588       0.48420763       0.54505407
Mo      -4.66989988       9.00766098       9.43944813      -0.23200221      -0.17612854      -0.10615905
S       -3.18725673       9.96238713      11.06804439       0.62271347      -0.30925075      -0.61956104
S       -3.12927230      10.00167167       7.81072260      -0.27826818      -0.69682706       0.31103303
Mo      -6.22328444      11.69491844       9.42057589      -1.05446494      -0.01731612       0.34588819
S       -4.70017079      12.63341591      11.03337065      -0.04629708       0.07705879      -0.10260373
S       -4.76796886      12.65272469       7.82281823       0.67122839      -0.07384208       0.11981341
Mo      -7.73982381      14.44532194       9.44773858      -0.76533179      -0.14323616       0.22252178
S       -6.24855110      15.37763483      11.08725200       0.33835538      -0.05084074      -0.44948257
S       -6.24127612      15.36513078       7.80639658       0.18492788      -0.08470242       0.51797341
Mo       3.16313106       0.92951569       9.43927389      -0.11488357      -0.01180059      -0.15987839
S        4.79305004       1.82358947      11.00385852      -0.64546851       0.20835140       0.05356739
S        4.68108870       1.83583498       7.78134912       0.33146713       0.06654092       0.71691895
Mo       1.54926276       3.62316194       9.35706637      -0.09003875      -0.04120373      -0.82046216
S        3.06592204       4.51493501      10.94686146       0.37640359      -0.15401448       0.68578238
S        3.12270552       4.52899786       7.80421202       0.25519356      -0.25481972      -0.11455782
Mo      -0.03069246       6.31332152       9.34500260       0.13211794       0.53030700      -0.11407702
S        1.55391478       7.17471501      10.96708266      -0.45845880       0.12833121       0.09789141
S        1.57501467       7.17336044       7.75162529      -0.17760152       0.29106508       0.32510828
Mo      -1.59768085       9.02452291       9.40406431      -0.23441416       0.15089522      -0.54011216
S        0.00127963       9.89981251      10.93772042      -0.28073413       0.15500641       0.43681500
S       -0.00361407       9.91269502       7.79868131      -0.22976715       0.05681367       0.11716697
Mo      -3.15647809      11.74725599       9.42939655       0.02823406       0.19122708      -0.08061103
S       -1.55775929      12.62433108      11.00219856      -0.15810073       0.10530827      -0.05357408
S       -1.61246314      12.65214015       7.81298210       0.17632548      -0.16131770       0.05540522
Mo      -4.71480881      14.44651352       9.43643922       0.47296548       0.26717901       0.09288136
S       -3.07274924      15.37266806      11.00436251      -0.45089565      -0.13156541      -0.24737278
S       -3.13996839      15.33242051       7.80587573      -0.01441489       0.06130513       0.39379864
Mo       6.29420009       0.94664179       9.38671714      -0.21909424      -0.56885992      -0.65672557
S        7.83310026       1.82072482      10.97980217       0.18894549       0.01485841      -0.12532431
S        7.87683635       1.80059355       7.73666876      -0.38668003       0.23703103       0.74160797
Mo       4.69780824       3.64474521       9.43222748      -0.27703585      -0.39363744      -0.88908053
S        6.25258860       4.57780939      10.97937313       0.07595964      -0.30539332       0.39461214
S        6.23076739       4.53923117       7.81267297       0.05383170       0.29910106       0.20209668
Mo       3.10760472       6.29919122       9.39895890       0.09903838       0.33626893      -0.67468832
S        4.63308467       7.18155534      10.99588283       0.31975756       0.44349755       0.41734378
S        4.69574734       7.22729613       7.83581503      -0.10083558       0.15570215      -0.10844193
Mo       1.54310441       8.97410574       9.38344218      -0.16850316      -0.11001776      -0.34383645
S        3.03944694       9.87200906      10.98312397       0.51877406       0.17545671       0.40358195
S        3.10873822       9.89373659       7.86572996       0.20148553       0.04317319      -0.52837790
Mo      -0.02064087      11.74423770       9.39008203       0.20090497      -0.27524662      -0.31787757
S        1.51057025      12.62042098      11.02651346       0.13446432       0.07031659      -0.31137808
S        1.56680291      12.65225068       7.77966855      -0.24515083      -0.21725333       0.45364056
Mo      -1.56389891      14.43575748       9.40547510       0.00558418       0.09019224      -0.03070617
S       -0.00315880      15.32673242      11.01411432       0.17496768       0.16692656      -0.33613703
S       -0.01784367      15.33784443       7.79331172       0.31463798      -0.19401107       0.30576896
Mo       9.42178433       0.91398772       9.38444452      -1.12975584      -0.30542417       0.50585838
S       10.93773728       1.82242975      11.01212274       0.17310621      -0.06804167      -0.15126186
S       10.92676766       1.77974471       7.81445284       0.55953761       0.36829356      -0.23274963