108
Lattice="18.735476198403255 -0.0 0.0 -9.367738099201627 16.22539077472218 0.0 0.0 -0.0 18.813827959864977" Properties=species:S:1:pos:R:3:forces:R:3 config_type=mono energy=-92199.3405283235 stress="-0.014079028871468391 -0.00011660601713033036 -5.876208737276491e-05 -0.00011660601713033036 -0.014041384409245213 -0.0005646669333476628 -5.876208737276491e-05 -0.0005646669333476628 -0.0037414922819377656" free_energy=-92199.3405283235 pbc="T T T"
Mo      -0.00793447       0.90714365       9.37258497       0.32432821       0.01256858      -0.35657627
S        1.61117226       1.80543292      10.90010333      -0.18317696       0.05901222       0.42496607
S        1.54080931       1.78265246       7.75702485       0.08068122       0.01579403      -0.24689661
Mo      -1.52702000       3.61328272       9.42078947      -0.13965795      -0.07810651       0.29092084
S        0.05409494       4.55088277      10.92670583       0.22343195      -0.34137642       0.39843409
S        0.00430167       4.49138264       7.79393562      -0.15012569       0.30824853      -0.36761196
Mo      -3.11211248       6.32893941       9.45531896       0.28343096       0.06809850      -0.61399718
S       -1.50258894       7.21753682      10.98102372      -0.02658392       0.13282165       0.00025582
S       -1.62313112       7.21917430       7.77879173       0.59865900      -0.17931208       0.26084819
Mo      -4.67512520       8.98995783       9.36223549       0.53140743      -0.23895730       0.95510980
S       -3.11407408       9.91993254      10.94036587      -0.28501296       0.03808344       0.29307079
S       -3.13138941       9.84445480       7.79249298       0.13670453       0.76301112      -0.55617024
Mo      -6.25194035      11.72895705       9.31147921       0.11500673      -0.71556012       0.14311840
S       -4.70140546      12.63002104      10.89689956      -0.16908706       0.01353634       0.19808550
S       -4.70523873      12.61493149       7.73214789       0.24999299      -0.29914014      -0.40309575
Mo      -7.85203058      14.39277642       9.33383251      -0.14488912       0.09306159      -0.36795623
S       -6.27458592      15.28687457      10.81864335       0.01639335       0.27288018       1.28259790
S       -6.29423756      15.31131312       7.73283173      -0.19074989       0.12224850      -0.34546242
Mo       3.14306723       0.90612070       9.32653879      -0.51759469      -0.30264147      -0.21664655
S        4.69485928       1.76713761      10.96023109      -0.09790864       0.23595502      -0.19733371
S        4.67172097       1.80243150       7.75587262       0.36726383       0.17943806      -0.28214206
Mo       1.59047144       3.59864657       9.31375370      -0.08135845       0.23126404       0.43325222
S        3.12216219       4.53645083      10.89620073       0.15541804      -0.25370155       0.22715954
S        3.16673014       4.49264729       7.73867158       0.01204845       0.03164488      -0.18459467
Mo       0.04007331       6.33168791       9.35785326      -0.47220315       0.10950148      -0.14068974
S        1.59880498       7.20874613      11.00960657      -0.07186259      -0.15739908      -0.99977295
S        1.56284410       7.24642130       7.73491137       0.00171390      -0.01848263       0.09463845
Mo      -1.57417157       9.02054162       9.37546648       0.33962216      -0.31490846       0.37344605
S       -0.06183082       9.90888048      11.02227550       0.41937829      -0.12945993      -0.30299011
S        0.01276823       9.95865877       7.86602598      -0.28149980       0.05263202      -0.81537215
Mo      -3.14082647      11.71016162       9.35240873       0.13565629       0.05219108      -0.24859071
S       -1.62484167      12.62059710      10.99028842      -0.01677465      -0.00930148       0.05919322
S       -1.51309392      12.67550516       7.85013455      -0.34698811      -0.79372783      -0.55639547
Mo      -4.73579067      14.40969831       9.28120643       0.78512183      -0.16202475       0.46418208
S       -3.19666943      15.30261611      10.93345060      -0.42749835       0.19107590       0.10832366
S       -3.15236565      15.29483714       7.73906128       0.22780334       0.21290277      -0.11421946
Mo       6.21362068       0.87383010       9.33203952       0.59105471       0.27082227       0.10357920
S        7.79723868       1.75160965      10.93971949      -0.24718406       0.23844308       0.18078943
S        7.85182262       1.78535973       7.76824366       0.03082804      -0.11879551       0.31994319
Mo       4.71375401       3.59807701       9.36573528      -0.50891336      -0.32918271      -0.05845686
S        6.23184468       4.49792882      10.95549102       0.50195827      -0.30896587       0.40207220
S        6.28779443       4.51401884       7.84393685       0.18856471       0.10578830      -0.37091274
Mo       3.12993367       6.30877254       9.29410206       0.03387763       0.75081766       0.68139479
S        4.64964683       7.23938238      10.93773915      -0.22668414      -0.24641118       0.47222166
S        4.74244552       7.27729362       7.76091996      -0.25625542      -0.04259315       0.59896471
Mo       1.54187911       9.01396172       9.37918360       0.29286896      -0.08877942       1.11277602
S        3.04281745       9.88425832      11.06150946       0.29182715       0.25469039      -0.45021019
S        3.14569020       9.96168829       7.87061617      -0.42405847       0.04338762      -0.50339037
Mo      -0.00256863      11.73102170       9.45781077       0.05141538       0.23389891       0.43444933
S        1.54702574      12.62431047      11.13535908      -0.22908169      -0.17266423      -0.60060507
S        1.57107460      12.64339255       7.90462856      -0.17461159      -0.08191715      -0.34878146
Mo      -1.62612692      14.42951857       9.40502732       0.24044237      -0.12304863       0.25224707
S       -0.12120729      15.33867628      11.03596176       0.55608848      -0.32952595       0.22865078
S       -0.02227461      15.26103647       7.89269781       0.40891596       0.39597020      -0.60605812
Mo       9.38594523       0.85770823       9.42900311      -0.26712528       0.62917594      -0.30934588
S       10.95137858       1.82485599      11.02042068      -0.01274676      -0.82183461       0.22665406
S       10.93637521       1.80745823       7.87020774       0.19499632      -0.02846083      -0.34285224
Mo       7.88194739       3.58127691       9.37748804      -1.01160285       0.31144493       0.64893230
S        9.40222636       4.43381040      11.06290150      -0.36774026       0.53148379      -0.09024161
S        9.44024439       4.57702625       7.88195488       0.07125350      -0.44074596      -0.14506241
Mo       6.23207700       6.32457592       9.44483458       0.41132200      -0.14578283      -1.03448130
S        7.80707293       7.20357327      11.01439348      -0.38588916       0.25873525       0.48960489
S        7.79590284       7.16623346       7.84965305       0.41487578       0.28582800       0.28066933
Mo       4.66247876       9.07986938       9.44471093       0.40591728      -0.69313162      -0.57428674
S        6.19290674       9.96383538      11.04047326       0.53525688      -0.28789876      -0.18666595
S        6.26662896       9.95094912       7.81834981      -0.44849347       0.00481465       0.25140015
Mo       3.08849829      11.72638654       9.47095746       0.32714511       0.11113156       0.82807699
S        4.64122711      12.65088674      11.09278833       0.36434152      -0.36004957      -0.51298959
S        4.64108097      12.64903942       7.87232110       0.16743872      -0.17391662      -0.04509072
Mo       1.52419844      14.40276993       9.50804433      -0.19365446       0.27546774      -0.30639142
S        3.06137681      15.34893770      11.01804503       0.60494098       0.14146750       0.45901596
S        3.10659863      15.32522234       7.89416105      -0.11879808      -0.23724803      -0.30149167
Mo      12.53250101       0.91924490       9.41270699      -0.77115534      -0.15520824       0.58998564
S       14.06877259       1.79471810      11.01375273       0.19599031      -0.08572932       0.55685878
S       14.08033988       1.82193513       7.83146840       0.07606686       0.10754847       0.20009276
Mo      10.96244563       3.58912333       9.47874767      -0.02796563       0.73925078      -0.69204841
S       12.48670776       4.50715229      11.09363705       0.15132073      -0.00463647      -0.01430665
S       12.54013572       4.51590551       7.89787816      -0.37971594      -0.08404345      -0.07720226
Mo       9.40525402       6.32907243       9.51484906      -0.26830618      -0.72599366      -1.06638046
S       10.96588171       7.23963906      11.05484525      -0.06341729       0.03066683       0.40851358
S       10.94781697       7.17977172       7.84815983      -0.08833359      -0.18534697       0.11629640
Mo       7.78761989       9.01174906       9.40490554      -0.20556330      -0.29882364       0.57160457
S        9.38635367       9.80640679      10.99284206      -0.08810656       0.77967212       0.15698127
S        9.33886860       9.88105830       7.83173819       0.31204836      -0.28538782      -0.42940122
Mo       6.23835151      11.73867514       9.43266214      -0.56394037      -0.06628741       0.55389018
S        7.84217197      12.56337521      11.02311672       0.04597955       0.38175663      -0.17572822
S        7.76271857      12.58479735       7.83717710       0.50589746       0.48061554       0.17273314
Mo       4.66452842      14.41555876       9.46798789      -0.22918762       0.30557458       0.42667560
S        6.24495577      15.29693926      11.03347931       0.16912382       0.39263599       0.27553073
S        6.23993091      15.35777710       7.96382517      -0.08192769      -0.47793954      -1.33737294
Mo      15.65772271       0.92893301       9.44438119      -0.88995034       0.00527565       0.57868616
S       17.25075154       1.78323513      10.99751844      -0.25010869       0.48869318       0.42849028
S       17.11595728       1.84121956       7.81675168       0.58286523      -0.14136157      -0.19667602
Mo      14.04663850       3.60495293       9.49158522       0.40747151       0.11574541      -0.50346879
S       15.62649254       4.55660458      11.00060979       0.35643435      -0.59501035       0.79103743
S       15.62745555       4.51816126       7.93303154      -0.36250960      -0.06836563      -0.87981196
Mo      12.49314153       6.31256273       9.49398148       0.33418530      -0.30480402      -0.52305160
S       14.10912693       7.19779899      11.03800768      -0.43951800       0.57087772       0.16273412
S       14.04794624       7.17846211       7.86018426      -0.13192536      -0.35036603      -0.33150313
Mo      10.93804642       8.97051041       9.39405770       0.30166908       0.44122341       0.00450817
S       12.55645807       9.91080649      10.91037786      -0.62229155       0.36707691       0.48516074
S       12.53769262       9.85827596       7.79770519      -0.70962267       0.23840477      -0.53666353
Mo       9.39012699      11.65101185       9.40565121      -0.90142594       0.31465906      -0.28195900
S       10.93646327      12.56748390      10.89915906       0.20892193       0.40741006       0.79589295
S       10.86532279      12.57826429       7.74672971       0.12303963      -0.01918737      -0.06752077
Mo       7.83093443      14.44006102       9.45141636      -0.76157284      -1.32145447      -0.16641928
S        9.36844068      15.34364306      10.95608493       0.57872035      -0.06876055       0.62813593
S        9.28826783      15.31978343       7.80993571       0.27322856       0.05733354      -0.49951007
108
Lattice="19.500189653017745 -0.0 0.0 -9.750094826508873 16.887651744254693 0.0 0.0 -0.0 18.81382197761083" Properties=species:S:1:pos:R:3:forces:R:3 config_type=mono energy=-92200.14081185762 stress="0.010272347398851467 1.3772364227991774e-05 -0.0006344469121028211 1.3772364227991774e-05 0.010640528602546447 -0.00023872097995185744 -0.0006344469121028211 -0.00023872097995185744 0.002772835997902344" free_energy=-92200.14081185762 pbc="T T T"
Mo      -0.01093376       0.97481253       9.39712384       0.32803420      -0.00000180       0.15795649
S        1.62555141       1.88406542      10.98553129       0.10143285       0.16613055      -0.56289213
S        1.63396964       1.91290035       7.84236007      -0.10185502       0.04451737       0.26708080
Mo      -1.61873999       3.78543727       9.42632928      -0.17097245      -0.19761422      -0.17881894
S        0.02851513       4.75106131      10.97934973      -0.15630456      -0.17904494      -0.27073999
S       -0.03493069       4.69126983       7.83376634       0.26418419       0.24220949       0.37640693
Mo      -3.30198661       6.56445414       9.39865461       0.61202617      -0.13153275       0.00396438
S       -1.63143267       7.44775813      10.98643805      -0.18769233       0.42878159      -0.49605887
S       -1.67223876       7.48833218       7.83405104       0.22061016       0.01006613       0.20834420
Mo      -4.87521316       9.39106903       9.39673189       0.18093161       0.17871764      -0.35093578
S       -3.24256174      10.34147318      10.97137220       0.25932249      -0.42949018      -0.34405243
S       -3.19071268      10.29812816       7.87414343      -0.18476102       0.08774147      -0.23224415
Mo      -6.52721853      12.18301064       9.44485836       0.11317379      -0.18867501      -0.21279350
S       -4.89178053      13.10223593      10.96604670       0.41421192       0.26238031      -0.27542146
S       -4.84279215      13.06045872       7.88126880      -0.28507132       0.28093930      -0.04028250
Mo      -8.14377255      14.99723901       9.43639723      -0.05184012       0.34476462      -0.65617561
S       -6.50517552      15.96504512      10.94133801       0.20165805      -0.09767518      -0.05508897
S       -6.52690263      15.87428539       7.84356323       0.09940013       0.45557120       0.19146877
Mo       3.24222633       0.94298042       9.38804456       0.32266805      -0.14759778      -0.08683618
S        4.94246737       1.87983388      10.90732578      -0.41255099       0.03878432      -0.35032900
S        4.91062941       1.82381179       7.80545791      -0.36894225       0.28567244       0.04561188
Mo       1.62430730       3.80351394       9.41209804      -0.00211910      -0.56637700       0.12428378
S        3.32480769       4.69840885      10.94317298      -0.37585106       0.10355966      -0.27415544
S        3.20493807       4.74887729       7.85325288       0.21411067      -0.12267582      -0.22842092
Mo      -0.01088306       6.59660996       9.39498272      -0.01863047      -0.62307728      -0.27057955
S        1.62236703       7.49274117      10.93939384      -0.09283945       0.38712509       0.07242129
S        1.63679717       7.47773383       7.81228103      -0.17634939       0.51631351       0.22603365
Mo      -1.59161913       9.34339692       9.39645694      -0.49852919       0.33831012       0.73955597
S        0.01079921      10.30536858      10.96026490       0.13194130      -0.01859473      -0.11750276
S        0.02002474      10.35544116       7.88672105       0.02339395      -0.07886679      -0.29271572
Mo      -3.17492338      12.18403830       9.40350236      -0.99049924      -0.21304752       0.38849292
S       -1.62928960      13.09173898      10.98680855       0.41038997       0.58761817      -0.17934730
S       -1.57288140      13.12017415       7.87142121       0.18499601      -0.04896666      -0.22418168
Mo      -4.85951161      14.99419503       9.37633079      -0.23688036      -0.35154796       0.47587726
S       -3.22149178      15.93010858      10.92215178      -0.19000015       0.12730226      -0.08248022
S       -3.22585592      15.84663022       7.81477510      -0.09108853       0.63875201      -0.05479432
Mo       6.52927190       0.91495280       9.34861907       0.06743412      -0.26156012      -0.25792716
S        8.12732024       1.85335458      10.87730134      -0.05704867       0.35140372       0.25844035
S        8.19563721       1.92652514       7.81568576      -0.41656911      -0.47719829      -0.02880355
Mo       4.87472761       3.76932621       9.31668946       0.55964534      -0.15209155       0.82594915
S        6.53689453       4.68126233      10.96632556      -0.68661001      -0.05811542      -0.60915450
S        6.51557497       4.74594056       7.79885320      -0.32399705      -0.14490557      -0.01075930
Mo       3.23711923       6.61332162       9.40642348       0.77352538      -0.50234985       0.13767358
S        4.93203087       7.53680770      10.99175770      -0.70751540      -0.26127756      -0.34535932
S        4.91137432       7.51323782       7.85972694      -0.44032147       0.28460158       0.05222836
Mo       1.62660442       9.38349711       9.38127799       0.33532070      -0.15736643       0.51429442
S        3.22050507      10.30756430      11.00140445       0.11825609      -0.08637852      -0.29456049
S        3.29900699      10.39799253       7.92445977      -0.41168889      -0.44944066      -0.53077237
Mo       0.06773196      12.23625201       9.44833914      -0.91257990      -0.66946127       0.17276811
S        1.62455105      13.15045600      11.06078447       0.17030473       0.21011492      -0.51519277
S        1.62841209      13.13397054       7.87116185       0.43682503       0.20575202       0.20288806
Mo      -1.60460431      14.99736966       9.37852261      -0.12095678      -0.32042399       0.83529280
S       -0.00368749      15.96617613      10.94422209       0.10298245      -0.11223534       0.01648154
S       -0.00226787      15.94621184       7.87977314       0.50138774      -0.05597806      -0.38675871
Mo       9.78339335       0.94118445       9.38891816      -0.14189327       0.20642410      -0.51554449
S       11.32215722       1.88702945      10.96323283       0.42460303       0.14542134      -0.15360824
S       11.43783429       1.86760141       7.78819245      -0.17922492       0.03770703       0.88067559
Mo       8.08927732       3.79013291       9.35249571       0.69904953      -0.54361554       0.36723838
S        9.69159036       4.66786375      10.94995320       0.30054833       0.08970579      -0.24310526
S        9.76842305       4.66342356       7.83491490      -0.22588298       0.49063770      -0.13053002
Mo       6.48969432       6.56761512       9.41092608       0.22075363      -0.09657192      -0.09475929
S        8.04353183       7.46161107      10.99669515       0.81695106       0.06870579      -0.29865600
S        8.12618533       7.51619015       7.85557925      -0.04324853      -0.24223211       0.03570491
Mo       4.87697988       9.39095593       9.42418231       0.29718250       0.00249243       0.31793002
S        6.49342470      10.24200271      11.03637024       0.24110263       0.43897421      -0.69374560
S        6.48826885      10.33858325       7.84929239       0.25460632      -0.25048407       0.68290480
Mo       3.24340999      12.21476475       9.47891154      -0.10873350       0.14269443       0.20119062
S        4.89064756      13.11119237      11.02177239      -0.01638410       0.14484027       0.06598145
S        4.85266315      13.13143746       7.93077588       0.29858478      -0.05640383      -0.08861024
Mo       1.66054255      15.00905027       9.42810769      -0.21064277      -0.02713157       0.22019673
S        3.26671272      15.94727655      11.02156374       0.01116913      -0.04841362      -0.30470504
S        3.32024269      15.94923632       7.88995224      -0.34088534      -0.08959806       0.23613243
Mo      13.00561834       0.93069725       9.45759588      -0.16534122       0.16242533      -0.69970696
S       14.58273128       1.87053034      10.99393977       0.45630139       0.30059770      -0.23275348
S       14.62965263       1.87558674       7.85792902      -0.15726230       0.00348667       0.41889030
Mo      11.35681490       3.77054107       9.38116099       0.44035618      -0.48897934       0.16341237
S       12.98592900       4.69521861      10.94751372      -0.13758539       0.16625576       0.04871623
S       13.03988992       4.75182181       7.85859398      -0.51002613      -0.20818608       0.08386964
Mo       9.72750971       6.55141632       9.40480692      -0.18075627       0.10579267      -0.00528002
S       11.27841439       7.51559149      10.98660380       0.51813051      -0.00455420      -0.35690897
S       11.37831191       7.50623725       7.83385994      -0.25689589       0.02071538       0.34629726
Mo       8.14098793       9.32427894       9.43012596      -0.47026660       1.01910919       0.26720112
S        9.79241609      10.30645669      11.01059489      -0.38794553      -0.01792882      -0.56379510
S        9.72542709      10.32531337       7.85794657       0.02188523      -0.05223710       0.32018719
Mo       6.49542347      12.17720738       9.47125381      -0.07011244      -0.23894033      -0.30126618
S        8.10733255      13.17409998      10.95576230       0.01694897       0.01021499       0.23185077
S        8.10086239      13.09755003       7.87778022      -0.12174019       0.20315315      -0.06796146
Mo       4.91065671      14.99935868       9.46139842      -0.42585593       0.25559696       0.10061755
S        6.52807459      15.96863511      10.97507724       0.12214180      -0.05571221      -0.05437343
S        6.45959967      15.97424336       7.86809837       0.21994811      -0.08722108      -0.10592225
Mo      16.25365963       0.95149420       9.42451771      -0.18347495       0.22787996       0.19476852
S       17.90651325       1.90164484      10.97707601      -0.25460015       0.02048064      -0.12973195
S       17.85002510       1.91412887       7.85940129       0.12370837      -0.06481751       0.15760220
Mo      14.61285712       3.77398870       9.39984022       0.19310759      -0.52913457       0.33464913
S       16.24974399       4.68508242      10.96906923      -0.24539303       0.18770493      -0.14806495
S       16.22604736       4.66017482       7.82343904       0.16571403       0.31225431       0.48543816
Mo      12.96570340       6.60544549       9.43337665       0.11321107      -0.12952652      -0.33479646
S       14.59785367       7.57475897      10.92474140       0.09257283      -0.52709903       0.45839016
S       14.60699731       7.49300247       7.81661592      -0.18870689       0.26653907       0.45064445
Mo      11.37159800       9.38683164       9.38970597      -0.21863067      -0.27956376       0.40139445
S       13.00556374      10.26631945      10.96895028      -0.11875771       0.39759411      -0.12126042
S       12.98568134      10.33261229       7.85550320       0.10193601       0.05660618       0.02023792
Mo       9.70996734      12.20017276       9.44328664       0.34751750      -0.38649363       0.24107537
S       11.35586524      13.17579844      11.00091694      -0.05453413      -0.44937612      -0.03550051
S       11.30482350      13.09769628       7.90667365       0.40861257       0.26220521      -0.15782383
Mo       8.11510143      15.03410217       9.35902827      -0.11304344      -0.15773049       0.27050499
S        9.69770952      15.93976118      10.91717728       0.28431722       0.35756846       0.26270529
S        9.77260975      16.02476445       7.83672257      -0.14123892      -0.54539346       0.09462277
108
Lattice="19.500189653017745 -0.0 0.0 -9.750094826508873 16.887651744254693 0.0 0.0 -0.0 18.81382197761083" Properties=species:S:1:pos:R:3:forces:R:3 config_type=mono energy=-92199.8814408379 stress="0.009970273543450847 -2.66265708407841e-05 0.0005940479770340452 -2.66265708407841e-05 0.009899575407080488 -0.00015149600650790954 0.0005940479770340452 -0.00015149600650790954 0.0013919269446423688" free_energy=-92199.8814408379 pbc="T T T"
Mo      -0.02633501       0.92953894       9.33645290       0.44820139       0.15734894       0.68899266
S        1.58898075       1.86887088      10.90655942       0.25537534      -0.14967986      -0.28963169
S        1.61863469       1.85704401       7.78171448      -0.23379555       0.28609539       0.18342558
Mo      -1.62358579       3.77139518       9.40153479       0.50556244      -0.36334264       0.15085716
S        0.08181890       4.62603389      10.90623572      -0.66482634       0.81204848       0.38718140
S       -0.00903054       4.69464141       7.81370844       0.07584189       0.01623986       0.13311321
Mo      -3.24151263       6.56099286       9.47303613       0.05292230      -0.11916472       0.18412930
S       -1.53099109       7.46948720      10.99872317      -0.49737862      -0.08851280       0.18180245
S       -1.69226351       7.52500424       7.89690990       0.32398728       0.16596522       0.24990377
Mo      -4.87462816       9.42009702       9.50204851      -0.21796347      -0.18951627      -0.03143816
S       -3.27256278      10.37707077      11.08461176       0.18415809      -0.15045350      -0.50189168
S       -3.26235443      10.29108469       7.94283480       0.18823586       0.01955067       0.10864659
Mo      -6.47665844      12.26519224       9.45119202      -0.17189496      -0.45025287       0.10018226
S       -4.79480023      13.19796821      10.94689167      -0.57271503       0.21564202       0.27994943
S       -4.87537307      13.16922298       7.84133436       0.20235919      -0.10131998       0.39821966
Mo      -8.10612744      14.98725491       9.38090749      -0.08007906       0.86516542       0.05155730
S       -6.49621323      16.02767973      10.88785289      -0.11136348      -0.54348673       0.27371450
S       -6.48341331      15.97516182       7.75516497      -0.09327397      -0.40506342       0.64950617
Mo       3.24329884       0.94048245       9.32130711      -0.10207614       0.42813084       0.27807509
S        4.83816085       1.87322527      10.94356883       0.02530454      -0.20109961      -0.23608538
S        4.84530377       1.88039354       7.76681634       0.15891269       0.11476376       0.17020034
Mo       1.64169172       3.75515932       9.38121169       0.13521046      -0.70914239      -0.64424518
S        3.26721973       4.65881956      10.96854663       0.18481141      -0.07622395      -0.37808946
S        3.26883629       4.64563938       7.84321028       0.17879143       0.06940359      -0.04947368
Mo       0.00387664       6.56659136       9.36584749       0.08353154      -0.43469487       0.38472137
S        1.62161237       7.47448899      10.94479735       0.23172170      -0.04196632      -0.30524368
S        1.61179793       7.47688362       7.81951950       0.26257545       0.11391633       0.16244667
Mo      -1.62245673       9.38251040       9.54257771      -0.25448368       0.27684482      -0.97540712
S        0.05154485      10.38913164      11.00188025      -0.04191747      -0.68487503       0.05686920
S       -0.07415727      10.29173599       7.87295392       0.28934809       0.12460697       0.52023881
Mo      -3.24812904      12.20234703       9.42339255       0.24841639      -0.02795380      -0.22499415
S       -1.64400639      13.12895314      10.97092955       0.28245265       0.26874276      -0.17085803
S       -1.58166623      13.11043186       7.85931354      -0.33191553       0.01034432       0.20898235
Mo      -4.85669773      15.06756254       9.39275385      -0.18116044      -0.24721003      -0.68712912
S       -3.29630816      16.03612916      10.95310638       0.38217906      -0.19736174      -0.44097350
S       -3.24189873      15.95203654       7.78321795      -0.04531826       0.19107102       0.55190015
Mo       6.44047194       0.99011238       9.34552634       0.92032046      -0.85231787      -0.02639057
S        8.09003783       1.86917313      10.91480995       0.21726902       0.20009919      -0.46519329
S        8.17507621       1.88352332       7.81231028      -0.45447411      -0.19534933      -0.18921494
Mo       4.91525680       3.69566424       9.39630874      -0.88395555       0.70067472      -0.43306170
S        6.55022876       4.61557009      10.91413135      -0.03066349       0.49920822      -0.06615603
S        6.46606204       4.69742604       7.79897020       0.44636845      -0.19092215       0.16250478
Mo       3.27942099       6.50858220       9.38080413      -0.60114269       0.53723149      -0.00018126
S        4.88756068       7.46292928      10.89565492       0.15630379       0.04926799       0.37026097
S        4.89132617       7.45476650       7.82869824      -0.01482652       0.21716926      -0.03441447
Mo       1.60621502       9.35427218       9.39137714       0.06633112       0.07831246       0.01483886
S        3.25598372      10.27005763      10.90982376      -0.02510374       0.05585850       0.29661275
S        3.25662527      10.31932486       7.88125125      -0.35857299      -0.30421524      -0.60524437
Mo       0.03282467      12.19728088       9.44002036      -0.41023185       0.20273251      -0.45980349
S        1.67943433      13.11893394      10.98873127      -0.45676342       0.03359866       0.04940503
S        1.60640417      13.17889702       7.84667741       0.03086686      -0.38582514       0.24060358
Mo      -1.65200927      15.01041139       9.38632269       0.20819354       0.34088046       0.26132513
S       -0.04276977      15.96417931      10.96181516      -0.05509257      -0.13854184      -0.07395290
S        0.03615140      15.94443537       7.85929794      -0.40144819      -0.35731469      -0.10656940
Mo       9.76006137       0.91468370       9.36213855      -0.50006208       0.16723406       0.84408083
S       11.36693355       1.82528795      10.92922839      -0.20143333       0.22358956       0.47983778